CRYSTAL
PRIMVEC
   6.1236741070730307    0.0000409887324208    0.0000000000000000
  -3.0618015646296057    5.3032490162721055    0.0000000000000000
   0.0000000000000000    0.0000000000000000   18.4095001220999990
PRIMCOORD
 10 1
S     1.9524260375648093    0.1022163392231760    3.3178650324300292   -0.1467830455296100    0.1812307053515200   -0.0373239064421400
S     5.0589613018009389    1.6397655652973822    3.3178641702956306   -0.2425216297724800    0.1566445029953900    0.2689298467274400
S     2.1741703980711864    3.5613066604230323    3.3178687852525237   -0.2256903880714100    0.2563998878319200   -0.2305533455223000
S    -1.9525502732650946    3.6760830106222837    6.7161676111754307    0.0853541552225200   -0.2047015025325000   -0.1407457881450300
S     1.0980560148074110    5.1562310458820830    6.7161535398368963    0.1642286768590300   -0.2327921971067400    0.1904332656983800
S     0.8545598382687327    1.7742559006719170    6.7161623821058241    0.1533695910622400   -0.1546273596520200   -0.0470620896652900
Cu    3.0618423668456245    1.7677898845753632    6.3859615622852770    0.2281332240389400   -0.4179521262586800   -0.0139895533154200
P     0.0000040323030717    0.0000024394572294    3.8465518606772977   -0.1233910499084300    0.1281390335206200   -0.0003437878583600
P     0.0000000491029800    0.0000006981190269    6.1004876445508538    0.0961146076386000   -0.1220057195288100   -0.0004578022372900
In    0.0000199235690514    3.5355089795539083    4.7648637547656962   -0.0459735581766200    0.3125954496694600    0.0106230705085200