CRYSTAL
PRIMVEC
   6.1236741070730307    0.0000409887324208    0.0000000000000000
  -3.0618015646296057    5.3032490162721055    0.0000000000000000
   0.0000000000000000    0.0000000000000000   18.4095001220999990
PRIMCOORD
 10 1
S     1.9524260375648093    0.1022163392231760    3.3178650324300292   -0.1993785522343500   -0.2587941241445200   -0.2908559102676700
S     5.0589613018009389    1.6397655652973822    3.3178641702956306   -0.2175306122357100   -0.1695877457787700    0.0850490718703900
S     2.1741703980711864    3.5613066604230323    3.3178687852525237   -0.1242329163014500   -0.1998337551847000    0.1932992561172500
S    -1.9525502732650946    3.6760830106222837    6.7161676111754307    0.2007497372115200    0.1714012478961700    0.1238612910807100
S     1.0980560148074110    5.1562310458820830    6.7161535398368963    0.1693995894053300    0.0948550436097300    0.0570731507538800
S     0.8545598382687327    1.7742559006719170    6.7161623821058241    0.2407950671908500    0.1125385035216800   -0.1868969883868100
Cu    3.0618423668456245    1.7677898845753632    6.3859615622852770    0.4140459815620800    0.2133792996443900    0.0404240293776100
P     0.0000040323030717    0.0000024394572294    3.8465518606772977   -0.1236356178653600   -0.1266539151488700   -0.0021764490016400
P     0.0000000491029800    0.0000006981190269    6.1004876445508538    0.1243930311745700    0.0968841707289400   -0.0014321548559800
In    0.0000199235690514    3.5355089795539083    4.7648637547656962   -0.3545962510795300   -0.0129005687123700   -0.0196171065292500