CRYSTAL
PRIMVEC
   6.1236741070730307    0.0000409887324208    0.0000000000000000
  -3.0618015646296057    5.3032490162721055    0.0000000000000000
   0.0000000000000000    0.0000000000000000   18.4095001220999990
PRIMCOORD
 10 1
S     1.9524260375648093    0.1022163392231760    3.3178650324300292    0.0867770122896900    0.2844967054909500    0.4944374552206600
S     5.0589613018009389    1.6397655652973822    3.3178641702956306    0.0937136653690900    0.0603354766887800   -0.3804341676900400
S     2.1741703980711864    3.5613066604230323    3.3178687852525237   -0.0979472317327600    0.1630708274751900   -0.1083474711155900
S    -1.9525502732650946    3.6760830106222837    6.7161676111754307   -0.0077850004930800    0.0894269343078700    0.0276158753318600
S     1.0980560148074110    5.1562310458820830    6.7161535398368963    0.0018735797567600   -0.0618070907104800    0.1127858889034100
S     0.8545598382687327    1.7742559006719170    6.7161623821058241    0.1286766404340300    0.0230445292789400   -0.1392214655576800
Cu    3.0618423668456245    1.7677898845753632    6.3859615622852770    0.3580768471617400    0.0131413596678500   -0.0034741810546700
P     0.0000040323030717    0.0000024394572294    3.8465518606772977   -0.0402371408985800    0.0867070177608900    0.0022571646856800
P     0.0000000491029800    0.0000006981190269    6.1004876445508538   -0.0729781252780800    0.0725395256395600    0.0019177382210500
In    0.0000199235690514    3.5355089795539083    4.7648637547656962   -0.3201360137994200   -0.3866809458627100   -0.0015850527354300