CRYSTAL
PRIMVEC
   6.1236741070730307    0.0000409887324208    0.0000000000000000
  -3.0618015646296057    5.3032490162721055    0.0000000000000000
   0.0000000000000000    0.0000000000000000   18.4095001220999990
PRIMCOORD
 10 1
S     1.9524260375648093    0.1022163392231760    3.3178650324300292    0.0192724926664500   -0.3201493058882500   -0.2278128698642200
S     5.0589613018009389    1.6397655652973822    3.3178641702956306    0.2526641277389900    0.1772756917442100   -0.2249340805803800
S     2.1741703980711864    3.5613066604230323    3.3178687852525237   -0.2963995709190500    0.1480359563369700   -0.2595811935703600
S    -1.9525502732650946    3.6760830106222837    6.7161676111754307   -0.0676441202862200    0.0412092310684500   -0.0200886222543900
S     1.0980560148074110    5.1562310458820830    6.7161535398368963    0.0578707177442400    0.0467780576965900   -0.0325465989789400
S     0.8545598382687327    1.7742559006719170    6.7161623821058241    0.0039283380105300   -0.0759120211380600   -0.0312458262803000
Cu    3.0618423668456245    1.7677898845753632    6.3859615622852770    0.0017866861311200    0.0182221960326900    0.2778225794753000
P     0.0000040323030717    0.0000024394572294    3.8465518606772977   -0.0038894043753200   -0.0011092107526400   -0.3085468081838000
P     0.0000000491029800    0.0000006981190269    6.1004876445508538   -0.0042118981273100   -0.0015017869239000   -0.2627337636187500
In    0.0000199235690514    3.5355089795539083    4.7648637547656962    0.0196014946376400   -0.0222538597134400    0.5094393366652000