CRYSTAL
PRIMVEC
   6.1236741070730307    0.0000409887324208    0.0000000000000000
  -3.0618015646296057    5.3032490162721055    0.0000000000000000
   0.0000000000000000    0.0000000000000000   18.4095001220999990
PRIMCOORD
 10 1
S     1.9524260375648093    0.1022163392231760    3.3178650324300292    0.3585003672629200   -0.0670347314414500    0.0695895258480500
S     5.0589613018009389    1.6397655652973822    3.3178641702956306   -0.1214301955766600    0.3436583611184000    0.0691699930848400
S     2.1741703980711864    3.5613066604230323    3.3178687852525237   -0.2376117594268300   -0.2770745896939400    0.0699171340412000
S    -1.9525502732650946    3.6760830106222837    6.7161676111754307    0.1296834926530800   -0.3187738377279300    0.0490238691951700
S     1.0980560148074110    5.1562310458820830    6.7161535398368963   -0.3409865121790700    0.0466988833697500    0.0491077153199800
S     0.8545598382687327    1.7742559006719170    6.7161623821058241    0.2120793557768300    0.2717690370724200    0.0490354976591600
Cu    3.0618423668456245    1.7677898845753632    6.3859615622852770   -0.0003833170699300    0.0000180262495400    0.0062562594342300
P     0.0000040323030717    0.0000024394572294    3.8465518606772977   -0.0000419768834300    0.0000267800414000   -0.4103582264777600
P     0.0000000491029800    0.0000006981190269    6.1004876445508538    0.0002825288062800    0.0002535181583200    0.2158826767730500
In    0.0000199235690514    3.5355089795539083    4.7648637547656962    0.0000474753192800    0.0001014880846600   -0.0917111834635000