CRYSTAL
PRIMVEC
   6.1236741070730307    0.0000409887324208    0.0000000000000000
  -3.0618015646296057    5.3032490162721055    0.0000000000000000
   0.0000000000000000    0.0000000000000000   18.4095001220999990
PRIMCOORD
 10 1
S     1.9524260375648093    0.1022163392231760    3.3178650324300292   -0.0078987633262700    0.0852929143936700   -0.0620903722502500
S     5.0589613018009389    1.6397655652973822    3.3178641702956306   -0.0481048545873500   -0.0365417184607400   -0.0762149928317200
S     2.1741703980711864    3.5613066604230323    3.3178687852525237    0.0681360637344000   -0.0087960389114300   -0.0901104950114900
S    -1.9525502732650946    3.6760830106222837    6.7161676111754307    0.0744899554867900    0.0283962563116900   -0.0476173588194400
S     1.0980560148074110    5.1562310458820830    6.7161535398368963   -0.0123070245604200   -0.1010706309357300   -0.0383835594725900
S     0.8545598382687327    1.7742559006719170    6.7161623821058241   -0.0850155799908800    0.0431819181998400   -0.0320444736465300
Cu    3.0618423668456245    1.7677898845753632    6.3859615622852770   -0.0142703900148200   -0.0174228680304700    0.8544490553061200
P     0.0000040323030717    0.0000024394572294    3.8465518606772977    0.0026929089406800    0.0079632499809400   -0.0341524501037600
P     0.0000000491029800    0.0000006981190269    6.1004876445508538   -0.0049638940274100   -0.0071031523092900   -0.0176985548926200
In    0.0000199235690514    3.5355089795539083    4.7648637547656962    0.0146777981665700    0.0049142633896300   -0.4510792978593500