CRYSTAL
PRIMVEC
   6.1236741070730307    0.0000409887324208    0.0000000000000000
  -3.0618015646296057    5.3032490162721055    0.0000000000000000
   0.0000000000000000    0.0000000000000000   18.4095001220999990
PRIMCOORD
 10 1
S     1.9524260375648093    0.1022163392231760    3.3178650324300292   -0.0420962307050800    0.5608258116599800   -0.2966599509107900
S     5.0589613018009389    1.6397655652973822    3.3178641702956306    0.2173696759347000   -0.1814408651328100    0.0467402958025600
S     2.1741703980711864    3.5613066604230323    3.3178687852525237   -0.5541483808810000   -0.0348793412408800    0.2492090685522600
S    -1.9525502732650946    3.6760830106222837    6.7161676111754307   -0.0243307794167900    0.0462652195340000    0.0078458028303600
S     1.0980560148074110    5.1562310458820830    6.7161535398368963   -0.0637379930228800    0.0756591084283300    0.0129273520108500
S     0.8545598382687327    1.7742559006719170    6.7161623821058241   -0.0690649331451300    0.0273049350524100   -0.0207859183401700
Cu    3.0618423668456245    1.7677898845753632    6.3859615622852770    0.0548051751594200   -0.0607025133522200   -0.0000090856736900
P     0.0000040323030717    0.0000024394572294    3.8465518606772977    0.1569067620526500   -0.2100038356132700    0.0000247101210700
P     0.0000000491029800    0.0000006981190269    6.1004876445508538   -0.0464802375030000    0.0072092652224700    0.0001723824585000
In    0.0000199235690514    3.5355089795539083    4.7648637547656962    0.1853491103787400   -0.1107515818529300    0.0003251181917000