CRYSTAL
PRIMVEC
   6.1236741070730307    0.0000409887324208    0.0000000000000000
  -3.0618015646296057    5.3032490162721055    0.0000000000000000
   0.0000000000000000    0.0000000000000000   18.4095001220999990
PRIMCOORD
 10 1
S     1.9524260375648093    0.1022163392231760    3.3178650324300292    0.2183619865693400   -0.0976753518039500   -0.0707120403808100
S     5.0589613018009389    1.6397655652973822    3.3178641702956306    0.0977687257477000   -0.1695030500319400    0.2884220730627000
S     2.1741703980711864    3.5613066604230323    3.3178687852525237    0.0953228312181300   -0.0293050349780000   -0.2167477980861800
S    -1.9525502732650946    3.6760830106222837    6.7161676111754307   -0.2194212379796200    0.1203540855791600   -0.4190683743468500
S     1.0980560148074110    5.1562310458820830    6.7161535398368963   -0.2640302997425400   -0.0927481341685300    0.2343856251895400
S     0.8545598382687327    1.7742559006719170    6.7161623821058241   -0.0563550181910900   -0.0248083487015700    0.1836632241730500
Cu    3.0618423668456245    1.7677898845753632    6.3859615622852770    0.3416851756619200    0.0890499735470700   -0.0003464143525200
P     0.0000040323030717    0.0000024394572294    3.8465518606772977    0.2057498216633800   -0.1685412473451000    0.0000410724735800
P     0.0000000491029800    0.0000006981190269    6.1004876445508538   -0.3147550790849900    0.1784390166846600   -0.0001247589606400
In    0.0000199235690514    3.5355089795539083    4.7648637547656962   -0.1305642640154100    0.0835196642913000   -0.0002331505717300