CRYSTAL
PRIMVEC
   6.1236741070730307    0.0000409887324208    0.0000000000000000
  -3.0618015646296057    5.3032490162721055    0.0000000000000000
   0.0000000000000000    0.0000000000000000   18.4095001220999990
PRIMCOORD
 10 1
S     1.9524260375648093    0.1022163392231760    3.3178650324300292   -0.1140035327473700   -0.3623833421743000   -0.1386835613473300
S     5.0589613018009389    1.6397655652973822    3.3178641702956306    0.3724422403958400    0.0811549710706100   -0.1456115244158500
S     2.1741703980711864    3.5613066604230323    3.3178687852525237   -0.2565729399991200    0.2752195937630200   -0.1412506475993800
S    -1.9525502732650946    3.6760830106222837    6.7161676111754307    0.0557237974639300   -0.0387740558754600    0.1898006681975500
S     1.0980560148074110    5.1562310458820830    6.7161535398368963   -0.0617437396634200   -0.0285684968184200    0.1941510395247000
S     0.8545598382687327    1.7742559006719170    6.7161623821058241    0.0053933254044500    0.0689159193026700    0.1877429769429800
Cu    3.0618423668456245    1.7677898845753632    6.3859615622852770   -0.0000076397138500   -0.0007054799412100   -0.1074930009073200
P     0.0000040323030717    0.0000024394572294    3.8465518606772977   -0.0018254073320500   -0.0024970203137600    0.3048791119240000
P     0.0000000491029800    0.0000006981190269    6.1004876445508538   -0.0011342947585900   -0.0001249281997300    0.3921974666913500
In    0.0000199235690514    3.5355089795539083    4.7648637547656962    0.0022284626121900    0.0040501329525000   -0.3564822628510100