CRYSTAL
PRIMVEC
   6.1236741070730307    0.0000409887324208    0.0000000000000000
  -3.0618015646296057    5.3032490162721055    0.0000000000000000
   0.0000000000000000    0.0000000000000000   18.4095001220999990
PRIMCOORD
 10 1
S     1.9524260375648093    0.1022163392231760    3.3178650324300292   -0.0134741457992900    0.0116474675683300    0.0058376068366500
S     5.0589613018009389    1.6397655652973822    3.3178641702956306   -0.0030393791509300   -0.0172808137766300    0.0059898810194800
S     2.1741703980711864    3.5613066604230323    3.3178687852525237    0.0167327767985000    0.0054052490574900    0.0054067089447700
S    -1.9525502732650946    3.6760830106222837    6.7161676111754307   -0.5146465436867400   -0.2342898622813300    0.0215549030104700
S     1.0980560148074110    5.1562310458820830    6.7161535398368963    0.0541752966045800    0.5630239531508100    0.0217847960300700
S     0.8545598382687327    1.7742559006719170    6.7161623821058241    0.4616365992455200   -0.3272579889748600    0.0214055631799300
Cu    3.0618423668456245    1.7677898845753632    6.3859615622852770   -0.0013169628983500   -0.0008123711434300    0.1065073617881500
P     0.0000040323030717    0.0000024394572294    3.8465518606772977   -0.0001102416524800   -0.0003627304529300    0.0609180610539000
P     0.0000000491029800    0.0000006981190269    6.1004876445508538    0.0005330962234600    0.0011951969789600   -0.0087462431691900
In    0.0000199235690514    3.5355089795539083    4.7648637547656962   -0.0000804582044800   -0.0001964573726600   -0.1501453888763100