CRYSTAL
PRIMVEC
   6.1236741070730307    0.0000409887324208    0.0000000000000000
  -3.0618015646296057    5.3032490162721055    0.0000000000000000
   0.0000000000000000    0.0000000000000000   18.4095001220999990
PRIMCOORD
 10 1
S     1.9524260375648093    0.1022163392231760    3.3178650324300292   -0.0221145195832800   -0.2459242930979200    0.2855689786487600
S     5.0589613018009389    1.6397655652973822    3.3178641702956306    0.2247012824976300    0.1056949330553600    0.2830951538096200
S     2.1741703980711864    3.5613066604230323    3.3178687852525237   -0.2039525798016400    0.1391820561155800    0.2832267595521600
S    -1.9525502732650946    3.6760830106222837    6.7161676111754307    0.0372043152331900   -0.0819518406361300   -0.3945251035389500
S     1.0980560148074110    5.1562310458820830    6.7161535398368963   -0.0891957624972800    0.0097284240654700   -0.3964666648219500
S     0.8545598382687327    1.7742559006719170    6.7161623821058241    0.0529313613934800    0.0741432206164000   -0.3904646676190200
Cu    3.0618423668456245    1.7677898845753632    6.3859615622852770    0.0003472102714100   -0.0012031438934300    0.0874911053900400
P     0.0000040323030717    0.0000024394572294    3.8465518606772977   -0.0017970296827900   -0.0014168523853500    0.2724774910353100
P     0.0000000491029800    0.0000006981190269    6.1004876445508538    0.0013154593370700    0.0015183812975600   -0.0527379870719500
In    0.0000199235690514    3.5355089795539083    4.7648637547656962    0.0002900511826300    0.0003047496324100   -0.0072555185000500