CRYSTAL
PRIMVEC
   6.1236741070730307    0.0000409887324208    0.0000000000000000
  -3.0618015646296057    5.3032490162721055    0.0000000000000000
   0.0000000000000000    0.0000000000000000   18.4095001220999990
PRIMCOORD
 10 1
S     1.9524260375648093    0.1022163392231760    3.3178650324300292   -0.0383363304538200    0.0649778906179100    0.2237712956299500
S     5.0589613018009389    1.6397655652973822    3.3178641702956306    0.0564931818377400   -0.1522858429107000   -0.0917328899549700
S     2.1741703980711864    3.5613066604230323    3.3178687852525237   -0.1755379555870100   -0.1286697642025000   -0.1315295882482900
S    -1.9525502732650946    3.6760830106222837    6.7161676111754307    0.3901914592876300   -0.1745790143799200   -0.4256092447182600
S     1.0980560148074110    5.1562310458820830    6.7161535398368963    0.2226336793249800    0.1387319468364200    0.2137968063598200
S     0.8545598382687327    1.7742559006719170    6.7161623821058241    0.0347164187274800   -0.1639116160536400    0.2122125740887600
Cu    3.0618423668456245    1.7677898845753632    6.3859615622852770   -0.2602223365276100    0.3841471805557500   -0.0000474903220800
P     0.0000040323030717    0.0000024394572294    3.8465518606772977   -0.0918176770519700   -0.1805650040721700   -0.0007715283066600
P     0.0000000491029800    0.0000006981190269    6.1004876445508538    0.1118673992079000   -0.1093486081758700   -0.0007035439670700
In    0.0000199235690514    3.5355089795539083    4.7648637547656962   -0.0753396252390400    0.0824721957822400    0.0005414383407600