CRYSTAL
PRIMVEC
   6.1236741070730307    0.0000409887324208    0.0000000000000000
  -3.0618015646296057    5.3032490162721055    0.0000000000000000
   0.0000000000000000    0.0000000000000000   18.4095001220999990
PRIMCOORD
 10 1
S     1.9524260375648093    0.1022163392231760    3.3178650324300292   -0.2288244398023800   -0.1178006411564700   -0.0976173261248900
S     5.0589613018009389    1.6397655652973822    3.3178641702956306   -0.1884734027068200    0.1503111482910700   -0.2102221208299000
S     2.1741703980711864    3.5613066604230323    3.3178687852525237    0.0239185137982200   -0.0192612667337300    0.3072618285474800
S    -1.9525502732650946    3.6760830106222837    6.7161676111754307   -0.0581617126542000    0.0750221905888700   -0.4407069157112700
S     1.0980560148074110    5.1562310458820830    6.7161535398368963    0.0399624993601500    0.0492761120727000    0.3515299735295100
S     0.8545598382687327    1.7742559006719170    6.7161623821058241    0.0125352697032300    0.1466363243814700    0.0883889293475800
Cu    3.0618423668456245    1.7677898845753632    6.3859615622852770    0.0125698758151600   -0.1317680116455000    0.0004112559170000
P     0.0000040323030717    0.0000024394572294    3.8465518606772977   -0.1988267528423800    0.2265387353408000   -0.0008925452890500
P     0.0000000491029800    0.0000006981190269    6.1004876445508538   -0.1059153871875500    0.2077531420533300   -0.0009609247680500
In    0.0000199235690514    3.5355089795539083    4.7648637547656962    0.3580779280859100   -0.2743939772767000    0.0011567083489900