CRYSTAL
PRIMVEC
   6.1236741070730307    0.0000409887324208    0.0000000000000000
  -3.0618015646296057    5.3032490162721055    0.0000000000000000
   0.0000000000000000    0.0000000000000000   18.4095001220999990
PRIMCOORD
 10 1
S     1.9524260375648093    0.1022163392231760    3.3178650324300292    0.3105644124628300   -0.2224583628505900    0.1132777947184000
S     5.0589613018009389    1.6397655652973822    3.3178641702956306   -0.4172901359182200   -0.4575219293745900   -0.3150912525035400
S     2.1741703980711864    3.5613066604230323    3.3178687852525237   -0.2563139723723500    0.2910892870321200    0.2028216831944800
S    -1.9525502732650946    3.6760830106222837    6.7161676111754307   -0.0338263274171200   -0.0819969653602800    0.0146082570549200
S     1.0980560148074110    5.1562310458820830    6.7161535398368963   -0.0405760812135300    0.0113217754146800   -0.0457881710463800
S     0.8545598382687327    1.7742559006719170    6.7161623821058241   -0.1156602786764200   -0.0413300550950500    0.0285747595338000
Cu    3.0618423668456245    1.7677898845753632    6.3859615622852770    0.1054733452839600    0.0295749587655300    0.0001392543837000
P     0.0000040323030717    0.0000024394572294    3.8465518606772977    0.1811334281217600    0.1332056875791300    0.0008928603475600
P     0.0000000491029800    0.0000006981190269    6.1004876445508538   -0.0266316205329500   -0.0930946941422000    0.0000979951894700
In    0.0000199235690514    3.5355089795539083    4.7648637547656962    0.1335902444366800    0.2220223554746100    0.0004587378620200