CRYSTAL
PRIMVEC
   6.1236741070730307    0.0000409887324208    0.0000000000000000
  -3.0618015646296057    5.3032490162721055    0.0000000000000000
   0.0000000000000000    0.0000000000000000   18.4095001220999990
PRIMCOORD
 10 1
S     1.9524260375648093    0.1022163392231760    3.3178650324300292   -0.0593870254973700    0.0322973518004500   -0.0190952898341200
S     5.0589613018009389    1.6397655652973822    3.3178641702956306    0.0360798117554400    0.0589448667787200    0.0226920020999700
S     2.1741703980711864    3.5613066604230323    3.3178687852525237    0.0107873990887400   -0.0375195501170900   -0.0032052459144500
S    -1.9525502732650946    3.6760830106222837    6.7161676111754307   -0.4188995918312300   -0.5020801249112800   -0.0164013117687700
S     1.0980560148074110    5.1562310458820830    6.7161535398368963    0.2740581901388900   -0.1199184624158900    0.0225056497381600
S     0.8545598382687327    1.7742559006719170    6.7161623821058241   -0.4024697841502100    0.2881672867105600   -0.0054682551116700
Cu    3.0618423668456245    1.7677898845753632    6.3859615622852770    0.2534004852707900    0.3080332005593900   -0.0002451166260100
P     0.0000040323030717    0.0000024394572294    3.8465518606772977   -0.0476728901024400   -0.0103180716935400   -0.0002519667895100
P     0.0000000491029800    0.0000006981190269    6.1004876445508538    0.2417130032237100   -0.0569675145175600   -0.0001233207656700
In    0.0000199235690514    3.5355089795539083    4.7648637547656962    0.0066136614207100   -0.0466117613033700   -0.0003025298587300