CRYSTAL
PRIMVEC
   6.1236741070730307    0.0000409887324208    0.0000000000000000
  -3.0618015646296057    5.3032490162721055    0.0000000000000000
   0.0000000000000000    0.0000000000000000   18.4095001220999990
PRIMCOORD
 10 1
S     1.9524260375648093    0.1022163392231760    3.3178650324300292   -0.0191388883044100   -0.0281840790054400    0.0082384821958400
S     5.0589613018009389    1.6397655652973822    3.3178641702956306    0.0197210927847200    0.0858505596595500    0.0416678900520600
S     2.1741703980711864    3.5613066604230323    3.3178687852525237    0.0948496382282200   -0.0066253969426600   -0.0460100349986000
S    -1.9525502732650946    3.6760830106222837    6.7161676111754307    0.2862056804857700   -0.0476145989436300   -0.0150117185428700
S     1.0980560148074110    5.1562310458820830    6.7161535398368963   -0.0964836223591300    0.6441448404300100    0.0089231687991400
S     0.8545598382687327    1.7742559006719170    6.7161623821058241   -0.5053348263126000   -0.0372778455461100    0.0093247925233600
Cu    3.0618423668456245    1.7677898845753632    6.3859615622852770    0.2940342619231400   -0.2570931450622600   -0.0003299741329800
P     0.0000040323030717    0.0000024394572294    3.8465518606772977   -0.0170252355664200    0.0489121277185300   -0.0014128299944800
P     0.0000000491029800    0.0000006981190269    6.1004876445508538   -0.0465813630787000   -0.2202843251723600   -0.0017267689126200
In    0.0000199235690514    3.5355089795539083    4.7648637547656962   -0.0694524708424400   -0.0424084312712600   -0.0019754765056600