CRYSTAL
PRIMVEC
   6.1236741070730307    0.0000409887324208    0.0000000000000000
  -3.0618015646296057    5.3032490162721055    0.0000000000000000
   0.0000000000000000    0.0000000000000000   18.4095001220999990
PRIMCOORD
 10 1
S     1.9524260375648093    0.1022163392231760    3.3178650324300292    0.1751173195621800   -0.1682652114777600    0.2411356514417600
S     5.0589613018009389    1.6397655652973822    3.3178641702956306    0.0582985268659000    0.2342977043111200    0.2401887041361600
S     2.1741703980711864    3.5613066604230323    3.3178687852525237   -0.2345623136391700   -0.0668753399509500    0.2418766398713400
S    -1.9525502732650946    3.6760830106222837    6.7161676111754307   -0.1145537709958200    0.3006742636530900    0.1666947391205500
S     1.0980560148074110    5.1562310458820830    6.7161535398368963    0.3166640087706400   -0.0552418895474300    0.1662339157624900
S     0.8545598382687327    1.7742559006719170    6.7161623821058241   -0.2005746617867700   -0.2480454482985100    0.1660570740166800
Cu    3.0618423668456245    1.7677898845753632    6.3859615622852770   -0.0015352581647800    0.0013142070367700   -0.0612181545256000
P     0.0000040323030717    0.0000024394572294    3.8465518606772977    0.0003154469096900   -0.0003044837687200   -0.1855717352833500
P     0.0000000491029800    0.0000006981190269    6.1004876445508538   -0.0001478604154100    0.0011628663954900   -0.3310037146339700
In    0.0000199235690514    3.5355089795539083    4.7648637547656962    0.0006352808384100    0.0003569270259800   -0.3309553466746000