CRYSTAL
PRIMVEC
   6.1236741070730307    0.0000409887324208    0.0000000000000000
  -3.0618015646296057    5.3032490162721055    0.0000000000000000
   0.0000000000000000    0.0000000000000000   18.4095001220999990
PRIMCOORD
 10 1
S     1.9524260375648093    0.1022163392231760    3.3178650324300292   -0.1320760116366100   -0.0483684938818700    0.2788287607109300
S     5.0589613018009389    1.6397655652973822    3.3178641702956306   -0.0154595685113300   -0.1490897973542700   -0.0827556944154500
S     2.1741703980711864    3.5613066604230323    3.3178687852525237   -0.1554863342867000   -0.2037456175879700   -0.1998915391984500
S    -1.9525502732650946    3.6760830106222837    6.7161676111754307   -0.1131810535889400    0.1387070481104300   -0.0261563416631300
S     1.0980560148074110    5.1562310458820830    6.7161535398368963    0.0750014718259400    0.0878593468974700   -0.3664433427260000
S     0.8545598382687327    1.7742559006719170    6.7161623821058241    0.0225664854454100    0.2756420404410400    0.3984640030635200
Cu    3.0618423668456245    1.7677898845753632    6.3859615622852770    0.1129833145467500   -0.3287252307550600   -0.0006307550716100
P     0.0000040323030717    0.0000024394572294    3.8465518606772977   -0.1955888108506900   -0.2171735510119500   -0.0019920779582200
P     0.0000000491029800    0.0000006981190269    6.1004876445508538    0.1641412414892900    0.2917606116624200   -0.0003647661813500
In    0.0000199235690514    3.5355089795539083    4.7648637547656962    0.1006087448921600    0.1531404848956500    0.0006258361168300