CRYSTAL
PRIMVEC
   6.1236741070730307    0.0000409887324208    0.0000000000000000
  -3.0618015646296057    5.3032490162721055    0.0000000000000000
   0.0000000000000000    0.0000000000000000   18.4095001220999990
PRIMCOORD
 10 1
S     1.9524260375648093    0.1022163392231760    3.3178650324300292    0.1082315924305700    0.0334828892818000   -0.1152486239011700
S     5.0589613018009389    1.6397655652973822    3.3178641702956306    0.3287411765492600    0.0299013351056500   -0.3449373308250100
S     2.1741703980711864    3.5613066604230323    3.3178687852525237    0.1759095412871500   -0.1410373733967900    0.4254328543957500
S    -1.9525502732650946    3.6760830106222837    6.7161676111754307   -0.0290119693579100   -0.1222408447456700   -0.1501371410224300
S     1.0980560148074110    5.1562310458820830    6.7161535398368963    0.1019874188762400   -0.0834901407254700    0.0712039556776800
S     0.8545598382687327    1.7742559006719170    6.7161623821058241    0.0028179678138100   -0.0012178564319400    0.0733308569165700
Cu    3.0618423668456245    1.7677898845753632    6.3859615622852770   -0.0346972364513200   -0.3315565845516600    0.0145487878192100
P     0.0000040323030717    0.0000024394572294    3.8465518606772977    0.1021433731279700    0.0167783207765600   -0.0163124835148100
P     0.0000000491029800    0.0000006981190269    6.1004876445508538    0.0678204276864400    0.0439702703566800   -0.0142015511589300
In    0.0000199235690514    3.5355089795539083    4.7648637547656962   -0.4258246054094700    0.3700059974307900    0.0257032353033200