CRYSTAL
PRIMVEC
   6.1236741070730307    0.0000409887324208    0.0000000000000000
  -3.0618015646296057    5.3032490162721055    0.0000000000000000
   0.0000000000000000    0.0000000000000000   18.4095001220999990
PRIMCOORD
 10 1
S     1.9524260375648093    0.1022163392231760    3.3178650324300292   -0.1227475200449900   -0.0576553575896200    0.2374584654647000
S     5.0589613018009389    1.6397655652973822    3.3178641702956306    0.1328490741754300   -0.0769134463493300   -0.1652964539700900
S     2.1741703980711864    3.5613066604230323    3.3178687852525237   -0.0055865896469500   -0.2953805535759100   -0.0677412123042000
S    -1.9525502732650946    3.6760830106222837    6.7161676111754307   -0.1053739743670400    0.0453818496084900    0.1462481438515100
S     1.0980560148074110    5.1562310458820830    6.7161535398368963   -0.1069312691125000   -0.0193004743731500    0.3306788893162400
S     0.8545598382687327    1.7742559006719170    6.7161623821058241   -0.0497274961556800    0.0100075670290600   -0.4826386517545300
Cu    3.0618423668456245    1.7677898845753632    6.3859615622852770    0.0639317174869300   -0.0162482532703000    0.0008868125863200
P     0.0000040323030717    0.0000024394572294    3.8465518606772977   -0.2112508510163400   -0.2164517028579500   -0.0024484472337800
P     0.0000000491029800    0.0000006981190269    6.1004876445508538   -0.1964536815771600   -0.1181147461113100   -0.0033934535011200
In    0.0000199235690514    3.5355089795539083    4.7648637547656962    0.2978531739334100    0.3925780379286900    0.0042514892802200