CRYSTAL
PRIMVEC
   6.1236741070730307    0.0000409887324208    0.0000000000000000
  -3.0618015646296057    5.3032490162721055    0.0000000000000000
   0.0000000000000000    0.0000000000000000   18.4095001220999990
PRIMCOORD
 10 1
S     1.9524260375648093    0.1022163392231760    3.3178650324300292    0.2343036890054400   -0.0567925167390900    0.0227126039729100
S     5.0589613018009389    1.6397655652973822    3.3178641702956306   -0.0299810487740200   -0.1945074936291500    0.1662338336484800
S     2.1741703980711864    3.5613066604230323    3.3178687852525237   -0.0174929550787600    0.1031014053091100   -0.1871376784616000
S    -1.9525502732650946    3.6760830106222837    6.7161676111754307   -0.0482049829252600    0.0524751725986600   -0.0099620699583700
S     1.0980560148074110    5.1562310458820830    6.7161535398368963    0.2836535452728600    0.2035487616024800    0.3214625421345300
S     0.8545598382687327    1.7742559006719170    6.7161623821058241   -0.0154486650336900    0.4171117494781200   -0.3135202963068400
Cu    3.0618423668456245    1.7677898845753632    6.3859615622852770   -0.3615144539629600   -0.2700771346965400    0.0007831171198000
P     0.0000040323030717    0.0000024394572294    3.8465518606772977    0.1998329300341800   -0.0655684010228700    0.0003167820467800
P     0.0000000491029800    0.0000006981190269    6.1004876445508538    0.1393513062774600    0.1671550510172600   -0.0001232220561500
In    0.0000199235690514    3.5355089795539083    4.7648637547656962   -0.1197910160959800   -0.1286049776358000    0.0003415543696200