# epsilon and Z* of atoms 1 10 19 28 37 46 55 64 73 82
   3.49305126    0.00004848    0.00000000    0.00004503    3.49306729    0.00000000    0.00000000    0.00000000    1.39051599 
  -2.32779907    0.34985101    0.09818287    0.45295845   -1.27668067    0.23196501    0.05225404    0.04524955   -0.22067471 
  -1.19181105    0.20285893   -0.24997743    0.30596637   -2.41267783   -0.03095614   -0.06531359    0.02262813   -0.22067471 
  -1.88711681   -0.70744347    0.15179456   -0.60433603   -1.71739325   -0.20100887    0.01305954   -0.06787768   -0.22067471 
  -1.71554027    0.59568984    0.31322774    0.86424933   -1.45883958    0.32236019    0.01717954    0.04481336   -0.22216238 
  -2.15521503   -0.61045421    0.12255397   -0.34189473   -1.01919510   -0.43244016    0.03021945   -0.03728411   -0.22216238 
  -0.89083375   -0.38813859   -0.43578171   -0.11957911   -2.28357623    0.11007997   -0.04739899   -0.00752925   -0.22216238 
   0.48846194    0.13561016    0.00000000   -0.13559709    0.48846419    0.00000000    0.00000000   -0.00000000    0.12911244 
   2.76243301    0.75296029    0.00000000   -0.75288634    2.76244569    0.00000000    0.00000000   -0.00000000    0.29075218 
   2.77341005    0.07327611    0.00000000   -0.07320186    2.77342278    0.00000000    0.00000000   -0.00000000    0.23980715 
   4.14401098   -0.40421007    0.00000000    0.40432101    4.14403000    0.00000000    0.00000000   -0.00000000    0.66883950 
