90   
60   

1    
  0.0099999999997760   0.0000000669348690   0.0000000000000000
  -0.1626492400   -0.0012400800    0.0368960100
   0.0012782400    0.0013906300    0.0000653100
   0.0013002100    0.0001862600   -0.0003842000
   0.0001686500    0.0001332800    0.0002182000
  -0.0004386800    0.0006972700   -0.0000122700
   0.0003514400    0.0006203700    0.0002164700
   0.0002495500    0.0002346600    0.0004073000
   0.0004570700    0.0004471200   -0.0001610200
  -0.0006199200    0.0012671600   -0.0003682800
   0.0018350600    0.0017045200   -0.0004588800
  -0.0001472700   -0.0002555700    0.0000573800
   0.0078698700   -0.0062318500   -0.0023920000
  -0.0007035000    0.0002739800    0.0001564200
  -0.0008137500    0.0000278100    0.0001395000
  -0.0005921800   -0.0008568600    0.0001011300
  -0.0007766400   -0.0004358300   -0.0001493000
  -0.0002353200    0.0012115800   -0.0000859400
   0.0008546300   -0.0027777000    0.0004462600
   0.0004560100   -0.0001756000    0.0002200800
   0.0011775400    0.0003476400    0.0003389700
   0.0015257300   -0.0003934200   -0.0003743600
   0.0008649500   -0.0001932100   -0.0000362100
   0.0009267300    0.0006106100    0.0003785900
   0.0006843400   -0.0008755800    0.0005605900
   0.0079556400   -0.0003333600    0.0002093500
   0.0015794400    0.0004343200    0.0002048900
   0.0124340200    0.0045498900   -0.0043303600
   0.0003739300   -0.0004303300   -0.0003353100
  -0.0005274000    0.0000308000   -0.0001049500
   0.0002677500    0.0000281300   -0.0001932000
   0.0001632900   -0.0003895000    0.0001535900
   0.0002578000   -0.0000877100   -0.0000492000
  -0.0001785500    0.0002563300   -0.0002472000
  -0.0028486700    0.0010487600    0.0000508800
   0.0003451700   -0.0000709200   -0.0000662200
   0.0003815500   -0.0001546700   -0.0003103500
   0.0000231300   -0.0000224700   -0.0001395300
   0.0003472900   -0.0001033400   -0.0001276200
   0.0004195100   -0.0000773100   -0.0003299500
   0.0003189300   -0.0001109100   -0.0001577300
   0.0005244300    0.0002146000   -0.0001779200
   0.0000609600   -0.0002044900    0.0000397200
   0.0040087500   -0.0000703700    0.0026806200
   0.0007028500    0.0002396100   -0.0002450800
   0.0016690300    0.0004154700   -0.0036185100
  -0.0019390500   -0.0005647600   -0.0011681600
   0.0001667300    0.0000558400    0.0000902300
  -0.0002032600   -0.0002530700   -0.0001445400
  -0.0001684400   -0.0008250900   -0.0002615000
  -0.0001771600   -0.0000018900   -0.0002940400
  -0.0003565200   -0.0002534300   -0.0001411200
  -0.0003949100   -0.0002308900    0.0000476900
  -0.0001692800   -0.0002012700   -0.0001506200
   0.0001306300    0.0002020000   -0.0007374300
  -0.0003395000   -0.0003759400   -0.0012288300
  -0.0000936000    0.0016666400    0.0003098900
   0.0001439100   -0.0002046200    0.0001687600
   0.0000473100   -0.0000229400   -0.0001957300
   0.0014420600   -0.0008627700    0.0003721900
  -0.0014969800   -0.0007842300    0.0003203900
  -0.0000087800    0.0001985800   -0.0003649900
   0.0000306400   -0.0000145200   -0.0001607000
   0.0000723900    0.0003971200    0.0001761300
   0.1229446600    0.0074577400   -0.0340268800
  -0.0016196700   -0.0053514300    0.0003958000
  -0.0012384000   -0.0008748600    0.0006481100
   0.0000397500   -0.0001626900    0.0003198700
  -0.0005361700   -0.0004901000    0.0002855300
  -0.0003587500   -0.0010913700    0.0003090200
  -0.0023540800    0.0014637500   -0.0005364200
  -0.0004831400    0.0001051600    0.0002519200
   0.0011501000   -0.0013438400    0.0003979500
   0.0079680700    0.0000859000    0.0022750900
  -0.0031778400    0.0003281500   -0.0002017900
  -0.0001847200    0.0002004800    0.0001606200
  -0.0002254500    0.0004832800    0.0000064300
   0.0001401400   -0.0007263600   -0.0000620200
  -0.0000916200    0.0003513000   -0.0000990600
   0.0000359600    0.0011177600   -0.0004868300
  -0.0002759700    0.0001762000   -0.0001525800
  -0.0002772100    0.0001294700   -0.0000159200
   0.0022012700    0.0026788600    0.0017259800
   0.0000057700   -0.0010674400    0.0000106200
  -0.0007511000    0.0002755200    0.0002403700
  -0.0001641500    0.0008435900   -0.0001760500
  -0.0003546400   -0.0002381900   -0.0000408700
   0.0010159800   -0.0001898100   -0.0001292100
   0.0040997600   -0.0028431900    0.0011489900
  -0.0015114900    0.0004393600   -0.0002822700
  -0.0039856400   -0.0005617400    0.0027103000

1    
 -0.0099999999997760  -0.0000000669348690   0.0000000000000000
   0.1699955700    0.0032458100   -0.0391095000
  -0.0015117200   -0.0000561300    0.0002766500
  -0.0014899600    0.0007986500    0.0001469600
  -0.0004028200    0.0013020200    0.0001993500
   0.0002892600    0.0005964000    0.0002108400
  -0.0003807600    0.0007317000    0.0001990000
  -0.0003216300    0.0009516100   -0.0000515400
  -0.0002753600    0.0009498000   -0.0002302200
   0.0001082200    0.0001247500    0.0000014300
  -0.0032042500   -0.0023071400   -0.0000721000
  -0.0013299400    0.0000180700    0.0000163700
  -0.0097380300    0.0062371700    0.0026614800
  -0.0007095100   -0.0004085600    0.0000747000
  -0.0007646300   -0.0001992400    0.0001486800
  -0.0008646000    0.0005272000    0.0001190700
  -0.0009515800    0.0004257600   -0.0003731800
  -0.0013167300   -0.0016231000    0.0003757600
  -0.0020624500    0.0026759300   -0.0008153900
   0.0009340300    0.0006518100   -0.0001057100
   0.0004670000   -0.0002025800    0.0004242700
   0.0003952800    0.0009402800    0.0003509700
   0.0007156200    0.0001506700   -0.0000079300
   0.0007877000   -0.0002632900    0.0003171700
   0.0009694700    0.0011720700   -0.0000141100
  -0.0060487600    0.0006148200    0.0005284200
  -0.0000647600   -0.0001557400    0.0005065500
  -0.0110613700   -0.0045152900    0.0051153400
  -0.0005095600    0.0005078900    0.0001139100
   0.0005292300    0.0000574400   -0.0001214000
  -0.0000207900    0.0001048700   -0.0000341500
  -0.0001249800    0.0000842200   -0.0003927400
  -0.0000404900    0.0000540400   -0.0001904500
   0.0000396100   -0.0002332900    0.0000104900
   0.0031930900   -0.0009252900   -0.0003079400
  -0.0006659000    0.0001480200   -0.0001767300
  -0.0003015900    0.0000158300    0.0000763900
   0.0003583900   -0.0000365700   -0.0001485200
   0.0001874200   -0.0002412600   -0.0001551200
   0.0002172900    0.0001339000    0.0000366700
   0.0000827200   -0.0001147800   -0.0001374500
   0.0002435200   -0.0000346800   -0.0001147900
   0.0005666400    0.0000980900   -0.0003145300
  -0.0032978000    0.0001015600   -0.0029339200
  -0.0004563900   -0.0001618900   -0.0000508700
  -0.0012031400   -0.0007983600    0.0033886400
   0.0012407300    0.0001716800    0.0007337300
  -0.0005760500   -0.0007813100   -0.0005418800
  -0.0003461800   -0.0003929000   -0.0002794100
  -0.0002115200   -0.0000850200   -0.0001804600
  -0.0000320400   -0.0003995800   -0.0001540800
  -0.0003623900   -0.0001897500   -0.0002905900
   0.0000031300   -0.0002129600   -0.0004948800
  -0.0003701900   -0.0001894900   -0.0002915300
  -0.0006063100   -0.0009569900    0.0003128700
  -0.0006469900    0.0000759100    0.0009117600
   0.0001857300    0.0017631900    0.0004223900
   0.0008213500   -0.0002729300   -0.0004931900
  -0.0000031600   -0.0000681100   -0.0002177100
   0.0014133600   -0.0007645000    0.0003336500
  -0.0013804500   -0.0009476100    0.0003923900
   0.0000887100   -0.0000091300   -0.0000417000
   0.0001342300    0.0001518900   -0.0002624100
  -0.0002128300    0.0008354600   -0.0005001200
  -0.1301976800   -0.0090734400    0.0371131100
   0.0003669800    0.0041321700    0.0001837100
   0.0021288300   -0.0003041100   -0.0000809600
   0.0003112100   -0.0019842200    0.0002471000
  -0.0001661300   -0.0016221800    0.0002845100
   0.0001685800   -0.0000876900    0.0002968600
   0.0016495200   -0.0017469700    0.0011118300
   0.0002991300   -0.0012954100    0.0003712800
  -0.0007891300    0.0011109700    0.0001667300
  -0.0082087800    0.0004199700   -0.0021042600
   0.0019808400    0.0001531800    0.0000105500
   0.0011679500    0.0002872600   -0.0003570900
   0.0006557600   -0.0009152100   -0.0002095300
  -0.0008076800    0.0002736200   -0.0001283400
  -0.0000261000    0.0001394700   -0.0000504000
  -0.0007012200    0.0003164500    0.0002942900
   0.0001621300    0.0003160800    0.0000025000
   0.0006870500    0.0012928500   -0.0001881100
  -0.0020518500   -0.0028126900   -0.0018122100
   0.0001961000    0.0010200200   -0.0000570100
   0.0009275100   -0.0003512000   -0.0003055500
   0.0003156400   -0.0009406000    0.0000655300
   0.0005755800    0.0001492100   -0.0000692300
  -0.0008399500    0.0001057800    0.0000649500
  -0.0038559400    0.0025233200   -0.0010039400
   0.0017040100   -0.0004799300    0.0001725800
   0.0042479000    0.0005022300   -0.0028185300

1    
 -0.0049999624212634   0.0086602757338294   0.0000000000000000
   0.0814603300   -0.0433145900    0.0057257800
  -0.0010748200    0.0005194500    0.0000279400
  -0.0001536300    0.0008659500    0.0000246400
  -0.0005664000    0.0013661700    0.0002091400
   0.0006010200    0.0005785000    0.0001906300
  -0.0004123200    0.0008201500    0.0001337600
  -0.0006791800    0.0011277700   -0.0001014800
  -0.0001381500    0.0009415700   -0.0002144300
  -0.0000317800    0.0003726700   -0.0001136300
  -0.0018359300   -0.0012398700   -0.0007674600
  -0.0009475400   -0.0001617400   -0.0000403500
  -0.0146835400    0.0055990900    0.0035111500
  -0.0004317900    0.0007510300    0.0004627200
  -0.0007796900    0.0000097400    0.0001541500
  -0.0009048400    0.0006798200    0.0001183500
  -0.0010340400    0.0003068000   -0.0003262300
  -0.0006123500   -0.0002610300    0.0001717800
  -0.0039193000    0.0060311600   -0.0014081300
   0.0020947800    0.0028984700    0.0004242100
   0.0006394600   -0.0001966400    0.0003610800
   0.0001209500    0.0010995200    0.0004844300
   0.0007052300    0.0001269800   -0.0000041300
   0.0009980100    0.0003004500    0.0003223200
   0.0008097300    0.0018677700   -0.0002487700
  -0.0027304300    0.0003756500    0.0007212000
   0.0001156500   -0.0001016000    0.0004643300
   0.0028585500   -0.0022437500   -0.0001427000
  -0.0004842900    0.0006019200    0.0002874300
   0.0003654700   -0.0001815000   -0.0001777200
   0.0000424900    0.0001178900   -0.0001034900
  -0.0003045800    0.0001331300   -0.0004998900
  -0.0000697600    0.0001222500   -0.0001220200
   0.0000068200   -0.0000672100   -0.0001434600
   0.0036080300   -0.0016172200   -0.0019053500
  -0.0003578200    0.0001030700   -0.0002027300
  -0.0002091800   -0.0000815300   -0.0000021800
   0.0003245700   -0.0000172300   -0.0000560200
   0.0003229200   -0.0001563600   -0.0001368600
   0.0001573400    0.0001247000    0.0000809700
   0.0000277800   -0.0001038900   -0.0001584700
   0.0004217400    0.0001088500   -0.0001748000
   0.0004130700   -0.0000073400   -0.0004007900
  -0.0012759400    0.0000861700   -0.0015742100
  -0.0002379900   -0.0001062100   -0.0001138000
  -0.0008421200   -0.0011772600    0.0020305400
  -0.0004306400   -0.0006971000    0.0016545400
  -0.0003916600   -0.0005254400   -0.0005020400
  -0.0002922800   -0.0004769500   -0.0002667100
  -0.0002241700   -0.0000934900   -0.0001721800
  -0.0000129700   -0.0001495500   -0.0000260300
  -0.0003052200   -0.0000624700   -0.0003317500
  -0.0001755500   -0.0003552900   -0.0005979200
  -0.0003372700   -0.0001725900   -0.0002558500
  -0.0003493400   -0.0004455200   -0.0000726600
  -0.0007554700   -0.0000060200    0.0001812900
   0.0001189700    0.0017410000    0.0004139100
   0.0008164800   -0.0001959900   -0.0006546900
   0.0000313400   -0.0000836300   -0.0002489100
   0.0013891200   -0.0008340100    0.0003340000
  -0.0013660000   -0.0009728700    0.0004263500
   0.0001244000    0.0000823400   -0.0001309400
   0.0000953100    0.0001325300   -0.0002161000
  -0.0001605500    0.0006638600   -0.0001309600
  -0.0510762800    0.0118845200    0.0112128300
  -0.0001732900    0.0006884000    0.0003769700
   0.0011698600   -0.0007596500    0.0002273700
   0.0004826000   -0.0021634900    0.0002298400
  -0.0013041400   -0.0015109600   -0.0002000200
   0.0001811400   -0.0002232500    0.0003342600
   0.0034142600   -0.0024712300    0.0019220200
   0.0001685700   -0.0010053700    0.0003461200
  -0.0001574900   -0.0001800800    0.0002871900
  -0.0047413500    0.0022578400   -0.0028209400
   0.0004809300    0.0001375400    0.0001081000
   0.0009093800    0.0004315000   -0.0002274700
   0.0006589200   -0.0009462700   -0.0002650600
  -0.0006889700    0.0000212400   -0.0004392100
  -0.0001926800    0.0000476900   -0.0000323500
  -0.0003918900    0.0004913800    0.0005727200
   0.0002557700    0.0001787000   -0.0000426700
   0.0002911100    0.0007483300   -0.0000336300
  -0.0014724400   -0.0037061800   -0.0024599400
  -0.0001695300    0.0011417900    0.0002854300
   0.0010906200   -0.0001346700   -0.0003087400
   0.0005549300   -0.0010839800    0.0000880000
  -0.0000509200   -0.0004341200   -0.0002411500
  -0.0009247800   -0.0003206500    0.0003468400
  -0.0095217300    0.0216910400   -0.0159280400
   0.0010296100   -0.0003847800    0.0001659500
   0.0010267400    0.0010541600    0.0003248100

1    
  0.0049999624212634  -0.0086602757338294   0.0000000000000000
  -0.0808985800    0.0458538200   -0.0066582300
   0.0008483500    0.0007978700    0.0003167500
  -0.0000127900    0.0001150700   -0.0002621300
   0.0003385300    0.0000638300    0.0002085400
  -0.0007533500    0.0007204900    0.0000095100
   0.0003873400    0.0005323200    0.0002830800
   0.0006165700    0.0000513800    0.0004614800
   0.0003225500    0.0004577100   -0.0001766800
  -0.0004846300    0.0010347700   -0.0002565200
   0.0004822600    0.0006483600    0.0002805300
  -0.0005240500   -0.0000806400    0.0001143100
   0.0128262300   -0.0056533900   -0.0032971800
  -0.0009848300   -0.0008762300   -0.0002273800
  -0.0008027500   -0.0001787800    0.0001347100
  -0.0005510500   -0.0010173100    0.0001022900
  -0.0006902200   -0.0003183600   -0.0001954400
  -0.0009278500   -0.0001174200    0.0001184600
   0.0027665600   -0.0062819600    0.0010531300
  -0.0007000600   -0.0024091900   -0.0003077200
   0.0010079400    0.0003513600    0.0004052100
   0.0018065800   -0.0005600600   -0.0005113100
   0.0008790600   -0.0001729100   -0.0000399500
   0.0007164900    0.0000531600    0.0003745100
   0.0008427300   -0.0016112000    0.0008051400
   0.0045897000   -0.0000810800    0.0000091100
   0.0014084700    0.0003792400    0.0002470100
  -0.0011505900    0.0023733900    0.0007870600
   0.0003506300   -0.0005356800   -0.0005099100
  -0.0003747200    0.0002596500   -0.0000472700
   0.0002018500    0.0000052100   -0.0001252400
   0.0003436400   -0.0004474600    0.0002670800
   0.0002871700   -0.0001585900   -0.0001183100
  -0.0001521500    0.0000876500   -0.0000971600
  -0.0033336000    0.0017444400    0.0017019700
   0.0000355900   -0.0000364600   -0.0000356900
   0.0002875800   -0.0000683000   -0.0002348500
   0.0000509500   -0.0000404700   -0.0002324900
   0.0002061600   -0.0001810600   -0.0001463500
   0.0004771800   -0.0000639800   -0.0003765700
   0.0003716000   -0.0001146000   -0.0001373400
   0.0003406400    0.0000807100   -0.0001205500
   0.0002068600   -0.0000966000    0.0001294000
   0.0019719900   -0.0000428200    0.0013111800
   0.0004843300    0.0001917300   -0.0001854600
   0.0013327700    0.0008051100   -0.0023254000
  -0.0002769500    0.0002982000   -0.0020997600
  -0.0000092100   -0.0002027600    0.0000558600
  -0.0002489000   -0.0001697400   -0.0001579700
  -0.0001512300   -0.0008191400   -0.0002707700
  -0.0001892300   -0.0002496100   -0.0004232800
  -0.0004089500   -0.0003807600   -0.0000989400
  -0.0002134500   -0.0000784500    0.0001505200
  -0.0001915400   -0.0002168400   -0.0001872200
  -0.0001162300   -0.0002962600   -0.0003652100
  -0.0002235000   -0.0002902300   -0.0004845500
  -0.0000288100    0.0016887800    0.0003184300
   0.0001436600   -0.0002775600    0.0003307600
   0.0000125100   -0.0000074400   -0.0001662200
   0.0014660200   -0.0007944800    0.0003712100
  -0.0015130500   -0.0007576300    0.0002847200
  -0.0000455000    0.0001065100   -0.0002748400
   0.0000684700    0.0000041000   -0.0002070500
   0.0000252200    0.0005670700   -0.0001876300
   0.0498593400   -0.0134414200   -0.0099300300
  -0.0011136900   -0.0018283300    0.0001939900
  -0.0003043200   -0.0004234700    0.0003422900
  -0.0001379400    0.0000268900    0.0003361800
   0.0006105700   -0.0005689200    0.0007711600
  -0.0003716200   -0.0009677200    0.0002677600
  -0.0041918500    0.0022194900   -0.0013795500
  -0.0003579100   -0.0001854400    0.0002762900
   0.0005358200   -0.0000763600    0.0002795000
   0.0046453900   -0.0017939100    0.0030129900
  -0.0016780100    0.0003479700   -0.0003106000
   0.0000663800    0.0000576000    0.0000326200
  -0.0002340500    0.0005213400    0.0000603500
   0.0000238000   -0.0004772500    0.0002452700
   0.0000750900    0.0004469700   -0.0001207800
  -0.0002709700    0.0009438400   -0.0007802600
  -0.0003738600    0.0003107600   -0.0001075900
   0.0001101600    0.0006651000   -0.0001705700
   0.0016339100    0.0036139100    0.0023949000
   0.0003645700   -0.0012259700   -0.0003630700
  -0.0009241000    0.0000666900    0.0002427500
  -0.0004124100    0.0009976900   -0.0002030800
   0.0002638400    0.0003389300    0.0001299000
   0.0011238600    0.0002330300   -0.0004172500
   0.0102023900   -0.0226338900    0.0167724900
  -0.0008497500    0.0003506800   -0.0002786500
  -0.0008410200   -0.0011047200   -0.0003804200

1    
  0.0000000000000000   0.0000000000000000   0.0100000000000000
   0.0378954400    0.0299868000   -0.0539356500
  -0.0003779200    0.0006692400   -0.0000820700
  -0.0001932400    0.0002590200   -0.0003744000
   0.0001148700    0.0005189500    0.0000983900
  -0.0002602500    0.0006229900   -0.0000530800
   0.0000241200    0.0006731300    0.0001375600
  -0.0000247800    0.0005960300    0.0000687200
   0.0001008400    0.0006162700   -0.0002663100
  -0.0003686500    0.0007396400   -0.0003383200
  -0.0012186000   -0.0004219100   -0.0008701500
  -0.0007420800   -0.0000858200   -0.0000802500
   0.0043986200   -0.0025221800   -0.0040465300
  -0.0008422900   -0.0005557400   -0.0001663100
  -0.0007941000   -0.0001005100    0.0000671400
  -0.0006871100   -0.0003153200   -0.0000118500
  -0.0007988700   -0.0000165600   -0.0003366200
  -0.0005313000    0.0002807400    0.0000734200
  -0.0007909800   -0.0003456600   -0.0006164400
   0.0001690000    0.0007487600   -0.0005717800
   0.0007560900   -0.0000161800    0.0003057300
   0.0013054700    0.0000228900   -0.0002976700
   0.0007974600   -0.0000241200   -0.0000990600
   0.0007781800    0.0001969900    0.0002303900
   0.0008500800    0.0003944500    0.0002032400
  -0.0003223700    0.0001287700   -0.0000442100
   0.0007668200    0.0001432900    0.0002334000
   0.0042466600    0.0010189900   -0.0038337800
  -0.0001329200   -0.0000972900   -0.0004238800
  -0.0000658500   -0.0000760100   -0.0004697900
   0.0001180000    0.0001047800   -0.0001903100
   0.0001061500   -0.0002308800   -0.0002759300
   0.0001273800   -0.0000613000   -0.0002171400
  -0.0000789200   -0.0000370800   -0.0002243400
  -0.0014873800   -0.0003443000    0.0037330100
   0.0000520100    0.0000144000   -0.0004205100
  -0.0002203400   -0.0000122200   -0.0002094800
   0.0002772200    0.0000810700   -0.0002821300
   0.0002481200   -0.0001661100   -0.0002223400
   0.0002931000    0.0000452800   -0.0002946300
   0.0002214400   -0.0001052900   -0.0002346800
   0.0002245300   -0.0000355800   -0.0002980500
   0.0002845900   -0.0000485800   -0.0003750900
   0.0021623100   -0.0000774400    0.0008601100
  -0.0000022000    0.0000435400   -0.0002670900
  -0.0022492800   -0.0010881800    0.0022277900
  -0.0015025500    0.0010148000    0.0009202400
  -0.0000560000   -0.0003271200   -0.0004905900
  -0.0003731800   -0.0002319800   -0.0004511200
  -0.0002062600   -0.0003733000   -0.0003547700
  -0.0001019200   -0.0001725200   -0.0004514200
  -0.0003704800   -0.0002400500   -0.0002846400
  -0.0001905200   -0.0002464400   -0.0004290300
  -0.0002583200   -0.0002658100   -0.0002993400
  -0.0001649200   -0.0004830200   -0.0006881300
  -0.0002670200    0.0003169300    0.0006808100
   0.0000537200    0.0017107400    0.0004127000
   0.0006950100   -0.0003260500    0.0000434700
   0.0000330800   -0.0000473300   -0.0001449100
   0.0014406500   -0.0007977200    0.0004079700
  -0.0014400000   -0.0008646900    0.0004074500
   0.0000040900    0.0000503000   -0.0001158200
   0.0000858300    0.0001158100   -0.0001550800
  -0.0000201000    0.0008788100    0.0002150500
  -0.0426084400   -0.0082248000    0.0334053600
   0.0001983200   -0.0003302300    0.0009272400
   0.0003142900   -0.0005003400    0.0004667500
   0.0000402600   -0.0008025400    0.0005300700
   0.0002251400   -0.0007412500    0.0005466400
  -0.0001511800   -0.0005354100    0.0004667300
  -0.0000763400   -0.0001452400    0.0002604300
  -0.0001451400   -0.0005997100    0.0004362700
   0.0004401000   -0.0003897200    0.0005411900
  -0.0071471500   -0.0022173200   -0.0000730900
  -0.0018500100    0.0001648200    0.0006394000
   0.0006894300    0.0001452000    0.0000693200
   0.0003300800   -0.0003386700    0.0001196800
  -0.0003727200   -0.0004576200    0.0002578800
   0.0000017100    0.0002172200    0.0000726100
  -0.0005486000    0.0009558900    0.0001806400
  -0.0000957100    0.0003237900    0.0000476800
   0.0002908200    0.0010903700    0.0001094900
   0.0007032200    0.0007044500    0.0022016500
   0.0001818600    0.0000617600    0.0005836100
  -0.0000949100   -0.0002575300    0.0004200800
   0.0000551100    0.0000251800    0.0002404200
   0.0002225200    0.0001390200    0.0003500200
   0.0001877700    0.0000563900    0.0003346500
   0.0080868000   -0.0203712800    0.0173135400
   0.0001292300   -0.0000210800    0.0003564200
  -0.0004966400    0.0012155800    0.0021634600

1    
  0.0000000000000000   0.0000000000000000  -0.0100000000000000
  -0.0380805900   -0.0281805300    0.0538898500
   0.0001507900    0.0006475700    0.0004346500
   0.0000156000    0.0007182100    0.0001425600
  -0.0003461800    0.0009076600    0.0003246700
   0.0001085600    0.0006751500    0.0002565700
  -0.0000467600    0.0006808200    0.0002843500
  -0.0000452600    0.0005880500    0.0002934800
   0.0000812700    0.0007811900   -0.0001203600
  -0.0001467800    0.0006622000   -0.0000283000
  -0.0001583100   -0.0001895300    0.0003918500
  -0.0007289900   -0.0001535100    0.0001584100
  -0.0059745000    0.0023923800    0.0042849300
  -0.0005696300    0.0004346700    0.0004075700
  -0.0007843300   -0.0000667700    0.0002256600
  -0.0007692800   -0.0000188900    0.0002370100
  -0.0009257500    0.0000038700   -0.0001781400
  -0.0010067600   -0.0006627000    0.0002193900
  -0.0003951000    0.0002460000    0.0002591100
   0.0012228000   -0.0002985900    0.0006899000
   0.0008920500    0.0001718400    0.0004644700
   0.0006214300    0.0005196500    0.0002748400
   0.0007832700   -0.0000194500    0.0000602700
   0.0009385600    0.0001590000    0.0004693300
   0.0008030900   -0.0001042700    0.0003499500
   0.0021456400    0.0001684000    0.0008306200
   0.0007562900    0.0001368000    0.0004817100
  -0.0025557100   -0.0008811800    0.0044978200
   0.0000014600    0.0001721500    0.0002030500
   0.0000650400    0.0001654000    0.0002490300
   0.0001316600    0.0000319500   -0.0000339900
  -0.0000676900   -0.0000773300    0.0000402300
   0.0000876800    0.0000264000   -0.0000195800
  -0.0000626600    0.0000626900   -0.0000126400
   0.0017516100    0.0004419700   -0.0038922700
  -0.0003766900    0.0000588100    0.0001872100
   0.0003015000   -0.0001243600   -0.0000236100
   0.0001022500   -0.0001356200    0.0000001600
   0.0002870800   -0.0001761500   -0.0000562600
   0.0003431600    0.0000135700    0.0000011600
   0.0001796600   -0.0001157400   -0.0000584700
   0.0005448400    0.0002151000    0.0000064500
   0.0003403100   -0.0000579700    0.0001027300
  -0.0014791800    0.0001005800   -0.0011287800
   0.0002550900    0.0000309100   -0.0000270900
   0.0027331800    0.0007105400   -0.0024846000
   0.0007428200   -0.0013923700   -0.0013135600
  -0.0003610500   -0.0004041600    0.0000514400
  -0.0001756900   -0.0004147500    0.0000287000
  -0.0001709400   -0.0005392600   -0.0000856900
  -0.0001059700   -0.0002259600    0.0000091400
  -0.0003455600   -0.0002042000   -0.0001440600
  -0.0001969500   -0.0002018600   -0.0000097300
  -0.0002831200   -0.0001236500   -0.0001402100
  -0.0003080900   -0.0002681500    0.0002569300
  -0.0007014100   -0.0005926100   -0.0009622800
   0.0000372500    0.0017193900    0.0003238500
   0.0002674900   -0.0001500000   -0.0003618300
   0.0000118000   -0.0000436700   -0.0002657500
   0.0014143600   -0.0008298700    0.0003017800
  -0.0014380500   -0.0008660900    0.0003092600
   0.0000748100    0.0001391900   -0.0002882000
   0.0000787700    0.0000215300   -0.0002646800
  -0.0001163000    0.0003568100   -0.0005255500
   0.0422827400    0.0070023900   -0.0328854600
  -0.0014934300   -0.0008294200   -0.0003666600
   0.0005570600   -0.0006808100    0.0001059700
   0.0003082000   -0.0013340300    0.0000426700
  -0.0009373500   -0.0013656300    0.0000337400
  -0.0000409500   -0.0006548700    0.0001414800
  -0.0006436000   -0.0001317000    0.0003190900
  -0.0000406000   -0.0005874400    0.0001898600
  -0.0000682200    0.0001346800    0.0000323500
   0.0069455400    0.0027031700    0.0002964900
   0.0006762000    0.0003193100   -0.0008393500
   0.0002900400    0.0003423100   -0.0002585600
   0.0000975600   -0.0000884400   -0.0003179800
  -0.0002932700    0.0000066300   -0.0004490100
  -0.0001198600    0.0002758900   -0.0002184600
  -0.0001151600    0.0004816500   -0.0003705700
  -0.0000196700    0.0001659800   -0.0001932100
   0.0001147100    0.0003302900   -0.0003067100
  -0.0005158000   -0.0008030900   -0.0022631500
   0.0000093200   -0.0001379000   -0.0006533100
   0.0002627800    0.0001859400   -0.0004781400
   0.0000940100   -0.0001164500   -0.0003465700
  -0.0000082500   -0.0002361100   -0.0004568200
  -0.0000021300   -0.0001439400   -0.0003922400
  -0.0076423500    0.0197976600   -0.0172622000
   0.0000536500   -0.0000137800   -0.0004660200
   0.0007009300   -0.0012636000   -0.0022116700

10   
  0.0099999999997760   0.0000000669348690   0.0000000000000000
   0.0025157500    0.0007933100   -0.0003587200
   0.0087800300   -0.0102342900    0.0053928900
   0.0005036400    0.0005878400   -0.0001219000
  -0.0000215000    0.0005670000    0.0002727700
   0.0013932600   -0.0023678700   -0.0000958500
   0.0005297900    0.0011702200    0.0004466400
  -0.0000279000    0.0009135500    0.0000435800
   0.0002314800    0.0005716600   -0.0001525600
  -0.0002786400    0.0006982000   -0.0001883700
  -0.0842115200    0.0508917900   -0.0447394400
  -0.0005980600    0.0001240500    0.0001512300
  -0.0006629800   -0.0003414700    0.0001264300
   0.0000157200   -0.0001527700    0.0003631100
  -0.0008162500    0.0003173400    0.0001949000
  -0.0006677700   -0.0000925700    0.0001756400
  -0.0001384000   -0.0011250600   -0.0001377200
  -0.0007126600   -0.0003178000    0.0001301100
  -0.0006158500    0.0001172500   -0.0001882100
   0.0023064500   -0.0004222200    0.0007628800
   0.0028615700    0.0034248100    0.0009790600
   0.0011357900    0.0003863400   -0.0000180800
   0.0008273100   -0.0004450200    0.0000350600
   0.0007122600    0.0001856600    0.0003006800
   0.0009412800    0.0002533500    0.0002756600
  -0.0020951400    0.0041153600   -0.0004886400
   0.0022861500    0.0002056200    0.0005595400
   0.0019392600    0.0003898800   -0.0000388900
   0.0000721400   -0.0000474700   -0.0001325200
   0.0009894100   -0.0017291900   -0.0014777400
  -0.0000465700    0.0001344900   -0.0000290100
  -0.0000214500   -0.0001171500   -0.0001669100
   0.0002609500   -0.0001879400   -0.0000610300
  -0.0000909000    0.0000568300   -0.0001005000
   0.0001513500    0.0000917300   -0.0002086800
  -0.0003259100   -0.0004636600    0.0012054300
   0.0002468700   -0.0001674500   -0.0000616900
   0.0004989900   -0.0000518800   -0.0001850800
   0.0000478100   -0.0000879000   -0.0000416700
   0.0004529500    0.0000509300   -0.0001089000
   0.0001497400   -0.0001901700   -0.0001631600
   0.0004070400    0.0000836600   -0.0001865700
   0.0002953100   -0.0000366100   -0.0001491500
  -0.0012482700    0.0010262900   -0.0010632900
   0.0006870400    0.0000806500    0.0002308300
   0.0004697000   -0.0000729300   -0.0002712600
  -0.0006289300   -0.0001759400   -0.0001637400
  -0.0005724600   -0.0011007700    0.0013969700
  -0.0001366800   -0.0002131100   -0.0000622000
  -0.0001330800   -0.0005038400   -0.0001554800
   0.0000208800   -0.0004864800   -0.0001984900
  -0.0003934800   -0.0000405900   -0.0001091200
  -0.0000857400   -0.0001981400   -0.0003949600
  -0.0002906200   -0.0003218800   -0.0001473800
  -0.0001810600   -0.0003157000   -0.0002880800
  -0.0006174900   -0.0000933400    0.0005740500
  -0.0000771200    0.0015847900   -0.0000047400
   0.0004098800   -0.0002510800   -0.0001636200
  -0.0000288600   -0.0000001400   -0.0001992900
   0.0015260700   -0.0007999100    0.0004400900
  -0.0014525500   -0.0008922300    0.0003202800
   0.0001046100    0.0001340400   -0.0000436000
   0.0000478100    0.0000915900   -0.0002590200
  -0.0000643800    0.0005767900   -0.0001309000
  -0.0005884600    0.0004303200    0.0009442900
   0.0557426400   -0.0568656300    0.0255490800
  -0.0003589300   -0.0017791100    0.0001613800
   0.0000647400   -0.0011485800    0.0002437000
  -0.0036177600   -0.0023329900    0.0000905000
   0.0001703300   -0.0025130800   -0.0005240200
  -0.0004354900   -0.0003772800    0.0002988500
  -0.0009624900    0.0000021700    0.0000009900
   0.0003724600    0.0001342800    0.0003071000
  -0.0002170100    0.0000161800    0.0003903300
   0.0027017300   -0.0017790600    0.0006275400