phonopy:
  version: 2.14.0
  frequency_unit_conversion_factor: 15.633302
  symmetry_tolerance: 1.00000e-05
  configuration:
    cell_filename: "POSCAR"
    create_displacements: ".true."
    dim: "3 3 1"

physical_unit:
  atomic_mass: "AMU"
  length: "angstrom"
  force_constants: "eV/angstrom^2"

space_group:
  type: "P1"
  number: 1
  Hall_symbol: "P 1"

supercell_matrix:
- [   3,   0,   0 ]
- [   0,   3,   0 ]
- [   0,   0,   1 ]

primitive_cell:
  lattice:
  - [     6.123674107073031,     0.000040988732421,     0.000000000000000 ] # a
  - [    -3.061801564629605,     5.303249016272106,     0.000000000000000 ] # b
  - [     0.000000000000000,     0.000000000000000,    18.409500122099999 ] # c
  points:
  - symbol: S  # 1
    coordinates: [  0.328468215143817,  0.019271747454024,  0.180225699254432 ]
    mass: 32.065000
  - symbol: S  # 2
    coordinates: [  0.980726209752397,  0.309192602787834,  0.180225652423481 ]
    mass: 32.065000
  - symbol: S  # 3
    coordinates: [  0.690803385559198,  0.671527649246856,  0.180225903106925 ]
    mass: 32.065000
  - symbol: S  # 4
    coordinates: [  0.027730952841650,  0.693175421837869,  0.364820748343563 ]
    mass: 32.065000
  - symbol: S  # 5
    coordinates: [  0.665443938804742,  0.972272611442082,  0.364819983991547 ]
    mass: 32.065000
  - symbol: S  # 6
    coordinates: [  0.306827143507644,  0.334557800090524,  0.364820464301651 ]
    mass: 32.065000
  - symbol: Cu # 7
    coordinates: [  0.666666817509724,  0.333335763288409,  0.346884028351163 ]
    mass: 63.546000
  - symbol: P  # 8
    coordinates: [  0.000000888468120,  0.000000459986096,  0.208943851553016 ]
    mass: 30.973762
  - symbol: P  # 9
    coordinates: [  0.000000073837437,  0.000000131639302,  0.331377147890475 ]
    mass: 30.973762
  - symbol: In # 10
    coordinates: [  0.333332343575271,  0.666665907226987,  0.258826351783753 ]
    mass: 114.818000
  reciprocal_lattice: # without 2pi
  - [     0.163300025129059,     0.094280368677780,     0.000000000000000 ] # a*
  - [    -0.000001262143455,     0.188562922936275,     0.000000000000000 ] # b*
  - [     0.000000000000000,     0.000000000000000,     0.054319780187814 ] # c*

unit_cell:
  lattice:
  - [     6.123674107073031,     0.000040988732421,     0.000000000000000 ] # a
  - [    -3.061801564629606,     5.303249016272106,     0.000000000000000 ] # b
  - [     0.000000000000000,     0.000000000000000,    18.409500122099999 ] # c
  points:
  - symbol: S  # 1
    coordinates: [  0.328468215143817,  0.019271747454024,  0.180225699254432 ]
    mass: 32.065000
    reduced_to: 1
  - symbol: S  # 2
    coordinates: [  0.980726209752397,  0.309192602787834,  0.180225652423481 ]
    mass: 32.065000
    reduced_to: 2
  - symbol: S  # 3
    coordinates: [  0.690803385559198,  0.671527649246856,  0.180225903106925 ]
    mass: 32.065000
    reduced_to: 3
  - symbol: S  # 4
    coordinates: [  0.027730952841650,  0.693175421837869,  0.364820748343563 ]
    mass: 32.065000
    reduced_to: 4
  - symbol: S  # 5
    coordinates: [  0.665443938804742,  0.972272611442082,  0.364819983991547 ]
    mass: 32.065000
    reduced_to: 5
  - symbol: S  # 6
    coordinates: [  0.306827143507644,  0.334557800090524,  0.364820464301651 ]
    mass: 32.065000
    reduced_to: 6
  - symbol: Cu # 7
    coordinates: [  0.666666817509724,  0.333335763288409,  0.346884028351163 ]
    mass: 63.546000
    reduced_to: 7
  - symbol: P  # 8
    coordinates: [  0.000000888468120,  0.000000459986096,  0.208943851553016 ]
    mass: 30.973762
    reduced_to: 8
  - symbol: P  # 9
    coordinates: [  0.000000073837437,  0.000000131639302,  0.331377147890475 ]
    mass: 30.973762
    reduced_to: 9
  - symbol: In # 10
    coordinates: [  0.333332343575271,  0.666665907226987,  0.258826351783753 ]
    mass: 114.818000
    reduced_to: 10

supercell:
  lattice:
  - [    18.371022321219094,     0.000122966197262,     0.000000000000000 ] # a
  - [    -9.185404693888817,    15.909747048816318,     0.000000000000000 ] # b
  - [     0.000000000000000,     0.000000000000000,    18.409500122099999 ] # c
  points:
  - symbol: S  # 1
    coordinates: [  0.109489405047939,  0.006423915818008,  0.180225699254432 ]
    mass: 32.065000
    reduced_to: 1
  - symbol: S  # 2
    coordinates: [  0.442822738381272,  0.006423915818008,  0.180225699254432 ]
    mass: 32.065000
    reduced_to: 1
  - symbol: S  # 3
    coordinates: [  0.776156071714606,  0.006423915818008,  0.180225699254432 ]
    mass: 32.065000
    reduced_to: 1
  - symbol: S  # 4
    coordinates: [  0.109489405047939,  0.339757249151341,  0.180225699254432 ]
    mass: 32.065000
    reduced_to: 1
  - symbol: S  # 5
    coordinates: [  0.442822738381272,  0.339757249151341,  0.180225699254432 ]
    mass: 32.065000
    reduced_to: 1
  - symbol: S  # 6
    coordinates: [  0.776156071714606,  0.339757249151341,  0.180225699254432 ]
    mass: 32.065000
    reduced_to: 1
  - symbol: S  # 7
    coordinates: [  0.109489405047939,  0.673090582484675,  0.180225699254432 ]
    mass: 32.065000
    reduced_to: 1
  - symbol: S  # 8
    coordinates: [  0.442822738381272,  0.673090582484675,  0.180225699254432 ]
    mass: 32.065000
    reduced_to: 1
  - symbol: S  # 9
    coordinates: [  0.776156071714606,  0.673090582484675,  0.180225699254432 ]
    mass: 32.065000
    reduced_to: 1
  - symbol: S  # 10
    coordinates: [  0.326908736584132,  0.103064200929278,  0.180225652423481 ]
    mass: 32.065000
    reduced_to: 10
  - symbol: S  # 11
    coordinates: [  0.660242069917466,  0.103064200929278,  0.180225652423481 ]
    mass: 32.065000
    reduced_to: 10
  - symbol: S  # 12
    coordinates: [  0.993575403250799,  0.103064200929278,  0.180225652423481 ]
    mass: 32.065000
    reduced_to: 10
  - symbol: S  # 13
    coordinates: [  0.326908736584132,  0.436397534262611,  0.180225652423481 ]
    mass: 32.065000
    reduced_to: 10
  - symbol: S  # 14
    coordinates: [  0.660242069917466,  0.436397534262611,  0.180225652423481 ]
    mass: 32.065000
    reduced_to: 10
  - symbol: S  # 15
    coordinates: [  0.993575403250799,  0.436397534262611,  0.180225652423481 ]
    mass: 32.065000
    reduced_to: 10
  - symbol: S  # 16
    coordinates: [  0.326908736584132,  0.769730867595945,  0.180225652423481 ]
    mass: 32.065000
    reduced_to: 10
  - symbol: S  # 17
    coordinates: [  0.660242069917466,  0.769730867595945,  0.180225652423481 ]
    mass: 32.065000
    reduced_to: 10
  - symbol: S  # 18
    coordinates: [  0.993575403250799,  0.769730867595945,  0.180225652423481 ]
    mass: 32.065000
    reduced_to: 10
  - symbol: S  # 19
    coordinates: [  0.230267795186399,  0.223842549748952,  0.180225903106925 ]
    mass: 32.065000
    reduced_to: 19
  - symbol: S  # 20
    coordinates: [  0.563601128519733,  0.223842549748952,  0.180225903106925 ]
    mass: 32.065000
    reduced_to: 19
  - symbol: S  # 21
    coordinates: [  0.896934461853066,  0.223842549748952,  0.180225903106925 ]
    mass: 32.065000
    reduced_to: 19
  - symbol: S  # 22
    coordinates: [  0.230267795186399,  0.557175883082285,  0.180225903106925 ]
    mass: 32.065000
    reduced_to: 19
  - symbol: S  # 23
    coordinates: [  0.563601128519733,  0.557175883082285,  0.180225903106925 ]
    mass: 32.065000
    reduced_to: 19
  - symbol: S  # 24
    coordinates: [  0.896934461853066,  0.557175883082285,  0.180225903106925 ]
    mass: 32.065000
    reduced_to: 19
  - symbol: S  # 25
    coordinates: [  0.230267795186399,  0.890509216415619,  0.180225903106925 ]
    mass: 32.065000
    reduced_to: 19
  - symbol: S  # 26
    coordinates: [  0.563601128519733,  0.890509216415619,  0.180225903106925 ]
    mass: 32.065000
    reduced_to: 19
  - symbol: S  # 27
    coordinates: [  0.896934461853066,  0.890509216415619,  0.180225903106925 ]
    mass: 32.065000
    reduced_to: 19
  - symbol: S  # 28
    coordinates: [  0.009243650947217,  0.231058473945956,  0.364820748343563 ]
    mass: 32.065000
    reduced_to: 28
  - symbol: S  # 29
    coordinates: [  0.342576984280550,  0.231058473945956,  0.364820748343563 ]
    mass: 32.065000
    reduced_to: 28
  - symbol: S  # 30
    coordinates: [  0.675910317613883,  0.231058473945956,  0.364820748343563 ]
    mass: 32.065000
    reduced_to: 28
  - symbol: S  # 31
    coordinates: [  0.009243650947217,  0.564391807279290,  0.364820748343563 ]
    mass: 32.065000
    reduced_to: 28
  - symbol: S  # 32
    coordinates: [  0.342576984280550,  0.564391807279290,  0.364820748343563 ]
    mass: 32.065000
    reduced_to: 28
  - symbol: S  # 33
    coordinates: [  0.675910317613883,  0.564391807279290,  0.364820748343563 ]
    mass: 32.065000
    reduced_to: 28
  - symbol: S  # 34
    coordinates: [  0.009243650947217,  0.897725140612623,  0.364820748343563 ]
    mass: 32.065000
    reduced_to: 28
  - symbol: S  # 35
    coordinates: [  0.342576984280550,  0.897725140612623,  0.364820748343563 ]
    mass: 32.065000
    reduced_to: 28
  - symbol: S  # 36
    coordinates: [  0.675910317613883,  0.897725140612623,  0.364820748343563 ]
    mass: 32.065000
    reduced_to: 28
  - symbol: S  # 37
    coordinates: [  0.221814646268247,  0.324090870480694,  0.364819983991547 ]
    mass: 32.065000
    reduced_to: 37
  - symbol: S  # 38
    coordinates: [  0.555147979601581,  0.324090870480694,  0.364819983991547 ]
    mass: 32.065000
    reduced_to: 37
  - symbol: S  # 39
    coordinates: [  0.888481312934914,  0.324090870480694,  0.364819983991547 ]
    mass: 32.065000
    reduced_to: 37
  - symbol: S  # 40
    coordinates: [  0.221814646268247,  0.657424203814027,  0.364819983991547 ]
    mass: 32.065000
    reduced_to: 37
  - symbol: S  # 41
    coordinates: [  0.555147979601581,  0.657424203814027,  0.364819983991547 ]
    mass: 32.065000
    reduced_to: 37
  - symbol: S  # 42
    coordinates: [  0.888481312934914,  0.657424203814027,  0.364819983991547 ]
    mass: 32.065000
    reduced_to: 37
  - symbol: S  # 43
    coordinates: [  0.221814646268247,  0.990757537147361,  0.364819983991547 ]
    mass: 32.065000
    reduced_to: 37
  - symbol: S  # 44
    coordinates: [  0.555147979601581,  0.990757537147361,  0.364819983991547 ]
    mass: 32.065000
    reduced_to: 37
  - symbol: S  # 45
    coordinates: [  0.888481312934914,  0.990757537147361,  0.364819983991547 ]
    mass: 32.065000
    reduced_to: 37
  - symbol: S  # 46
    coordinates: [  0.102275714502548,  0.111519266696841,  0.364820464301651 ]
    mass: 32.065000
    reduced_to: 46
  - symbol: S  # 47
    coordinates: [  0.435609047835881,  0.111519266696841,  0.364820464301651 ]
    mass: 32.065000
    reduced_to: 46
  - symbol: S  # 48
    coordinates: [  0.768942381169215,  0.111519266696841,  0.364820464301651 ]
    mass: 32.065000
    reduced_to: 46
  - symbol: S  # 49
    coordinates: [  0.102275714502548,  0.444852600030175,  0.364820464301651 ]
    mass: 32.065000
    reduced_to: 46
  - symbol: S  # 50
    coordinates: [  0.435609047835881,  0.444852600030175,  0.364820464301651 ]
    mass: 32.065000
    reduced_to: 46
  - symbol: S  # 51
    coordinates: [  0.768942381169215,  0.444852600030175,  0.364820464301651 ]
    mass: 32.065000
    reduced_to: 46
  - symbol: S  # 52
    coordinates: [  0.102275714502548,  0.778185933363508,  0.364820464301651 ]
    mass: 32.065000
    reduced_to: 46
  - symbol: S  # 53
    coordinates: [  0.435609047835881,  0.778185933363508,  0.364820464301651 ]
    mass: 32.065000
    reduced_to: 46
  - symbol: S  # 54
    coordinates: [  0.768942381169215,  0.778185933363508,  0.364820464301651 ]
    mass: 32.065000
    reduced_to: 46
  - symbol: Cu # 55
    coordinates: [  0.222222272503241,  0.111111921096136,  0.346884028351163 ]
    mass: 63.546000
    reduced_to: 55
  - symbol: Cu # 56
    coordinates: [  0.555555605836575,  0.111111921096136,  0.346884028351163 ]
    mass: 63.546000
    reduced_to: 55
  - symbol: Cu # 57
    coordinates: [  0.888888939169908,  0.111111921096136,  0.346884028351163 ]
    mass: 63.546000
    reduced_to: 55
  - symbol: Cu # 58
    coordinates: [  0.222222272503241,  0.444445254429470,  0.346884028351163 ]
    mass: 63.546000
    reduced_to: 55
  - symbol: Cu # 59
    coordinates: [  0.555555605836575,  0.444445254429470,  0.346884028351163 ]
    mass: 63.546000
    reduced_to: 55
  - symbol: Cu # 60
    coordinates: [  0.888888939169908,  0.444445254429470,  0.346884028351163 ]
    mass: 63.546000
    reduced_to: 55
  - symbol: Cu # 61
    coordinates: [  0.222222272503241,  0.777778587762803,  0.346884028351163 ]
    mass: 63.546000
    reduced_to: 55
  - symbol: Cu # 62
    coordinates: [  0.555555605836575,  0.777778587762803,  0.346884028351163 ]
    mass: 63.546000
    reduced_to: 55
  - symbol: Cu # 63
    coordinates: [  0.888888939169908,  0.777778587762803,  0.346884028351163 ]
    mass: 63.546000
    reduced_to: 55
  - symbol: P  # 64
    coordinates: [  0.000000296156040,  0.000000153328699,  0.208943851553016 ]
    mass: 30.973762
    reduced_to: 64
  - symbol: P  # 65
    coordinates: [  0.333333629489373,  0.000000153328699,  0.208943851553016 ]
    mass: 30.973762
    reduced_to: 64
  - symbol: P  # 66
    coordinates: [  0.666666962822707,  0.000000153328699,  0.208943851553016 ]
    mass: 30.973762
    reduced_to: 64
  - symbol: P  # 67
    coordinates: [  0.000000296156040,  0.333333486662032,  0.208943851553016 ]
    mass: 30.973762
    reduced_to: 64
  - symbol: P  # 68
    coordinates: [  0.333333629489373,  0.333333486662032,  0.208943851553016 ]
    mass: 30.973762
    reduced_to: 64
  - symbol: P  # 69
    coordinates: [  0.666666962822707,  0.333333486662032,  0.208943851553016 ]
    mass: 30.973762
    reduced_to: 64
  - symbol: P  # 70
    coordinates: [  0.000000296156040,  0.666666819995365,  0.208943851553016 ]
    mass: 30.973762
    reduced_to: 64
  - symbol: P  # 71
    coordinates: [  0.333333629489373,  0.666666819995365,  0.208943851553016 ]
    mass: 30.973762
    reduced_to: 64
  - symbol: P  # 72
    coordinates: [  0.666666962822707,  0.666666819995365,  0.208943851553016 ]
    mass: 30.973762
    reduced_to: 64
  - symbol: P  # 73
    coordinates: [  0.000000024612479,  0.000000043879767,  0.331377147890475 ]
    mass: 30.973762
    reduced_to: 73
  - symbol: P  # 74
    coordinates: [  0.333333357945812,  0.000000043879767,  0.331377147890475 ]
    mass: 30.973762
    reduced_to: 73
  - symbol: P  # 75
    coordinates: [  0.666666691279146,  0.000000043879767,  0.331377147890475 ]
    mass: 30.973762
    reduced_to: 73
  - symbol: P  # 76
    coordinates: [  0.000000024612479,  0.333333377213101,  0.331377147890475 ]
    mass: 30.973762
    reduced_to: 73
  - symbol: P  # 77
    coordinates: [  0.333333357945812,  0.333333377213101,  0.331377147890475 ]
    mass: 30.973762
    reduced_to: 73
  - symbol: P  # 78
    coordinates: [  0.666666691279146,  0.333333377213101,  0.331377147890475 ]
    mass: 30.973762
    reduced_to: 73
  - symbol: P  # 79
    coordinates: [  0.000000024612479,  0.666666710546434,  0.331377147890475 ]
    mass: 30.973762
    reduced_to: 73
  - symbol: P  # 80
    coordinates: [  0.333333357945812,  0.666666710546434,  0.331377147890475 ]
    mass: 30.973762
    reduced_to: 73
  - symbol: P  # 81
    coordinates: [  0.666666691279146,  0.666666710546434,  0.331377147890475 ]
    mass: 30.973762
    reduced_to: 73
  - symbol: In # 82
    coordinates: [  0.111110781191757,  0.222221969075662,  0.258826351783753 ]
    mass: 114.818000
    reduced_to: 82
  - symbol: In # 83
    coordinates: [  0.444444114525090,  0.222221969075662,  0.258826351783753 ]
    mass: 114.818000
    reduced_to: 82
  - symbol: In # 84
    coordinates: [  0.777777447858424,  0.222221969075662,  0.258826351783753 ]
    mass: 114.818000
    reduced_to: 82
  - symbol: In # 85
    coordinates: [  0.111110781191757,  0.555555302408996,  0.258826351783753 ]
    mass: 114.818000
    reduced_to: 82
  - symbol: In # 86
    coordinates: [  0.444444114525090,  0.555555302408996,  0.258826351783753 ]
    mass: 114.818000
    reduced_to: 82
  - symbol: In # 87
    coordinates: [  0.777777447858424,  0.555555302408996,  0.258826351783753 ]
    mass: 114.818000
    reduced_to: 82
  - symbol: In # 88
    coordinates: [  0.111110781191757,  0.888888635742329,  0.258826351783753 ]
    mass: 114.818000
    reduced_to: 82
  - symbol: In # 89
    coordinates: [  0.444444114525090,  0.888888635742329,  0.258826351783753 ]
    mass: 114.818000
    reduced_to: 82
  - symbol: In # 90
    coordinates: [  0.777777447858424,  0.888888635742329,  0.258826351783753 ]
    mass: 114.818000
    reduced_to: 82

displacements:
- atom:    1
  displacement:
    [   0.0099999999997760,  0.0000000669348690,  0.0000000000000000 ]
- atom:    1
  displacement:
    [  -0.0099999999997760, -0.0000000669348690,  0.0000000000000000 ]
- atom:    1
  displacement:
    [  -0.0049999624212634,  0.0086602757338294,  0.0000000000000000 ]
- atom:    1
  displacement:
    [   0.0049999624212634, -0.0086602757338294,  0.0000000000000000 ]
- atom:    1
  displacement:
    [   0.0000000000000000,  0.0000000000000000,  0.0100000000000000 ]
- atom:    1
  displacement:
    [   0.0000000000000000,  0.0000000000000000, -0.0100000000000000 ]
- atom:   10
  displacement:
    [   0.0099999999997760,  0.0000000669348690,  0.0000000000000000 ]
- atom:   10
  displacement:
    [  -0.0099999999997760, -0.0000000669348690,  0.0000000000000000 ]
- atom:   10
  displacement:
    [  -0.0049999624212634,  0.0086602757338294,  0.0000000000000000 ]
- atom:   10
  displacement:
    [   0.0049999624212634, -0.0086602757338294,  0.0000000000000000 ]
- atom:   10
  displacement:
    [   0.0000000000000000,  0.0000000000000000,  0.0100000000000000 ]
- atom:   10
  displacement:
    [   0.0000000000000000,  0.0000000000000000, -0.0100000000000000 ]
- atom:   19
  displacement:
    [   0.0099999999997760,  0.0000000669348690,  0.0000000000000000 ]
- atom:   19
  displacement:
    [  -0.0099999999997760, -0.0000000669348690,  0.0000000000000000 ]
- atom:   19
  displacement:
    [  -0.0049999624212634,  0.0086602757338294,  0.0000000000000000 ]
- atom:   19
  displacement:
    [   0.0049999624212634, -0.0086602757338294,  0.0000000000000000 ]
- atom:   19
  displacement:
    [   0.0000000000000000,  0.0000000000000000,  0.0100000000000000 ]
- atom:   19
  displacement:
    [   0.0000000000000000,  0.0000000000000000, -0.0100000000000000 ]
- atom:   28
  displacement:
    [   0.0099999999997760,  0.0000000669348690,  0.0000000000000000 ]
- atom:   28
  displacement:
    [  -0.0099999999997760, -0.0000000669348690,  0.0000000000000000 ]
- atom:   28
  displacement:
    [  -0.0049999624212634,  0.0086602757338294,  0.0000000000000000 ]
- atom:   28
  displacement:
    [   0.0049999624212634, -0.0086602757338294,  0.0000000000000000 ]
- atom:   28
  displacement:
    [   0.0000000000000000,  0.0000000000000000,  0.0100000000000000 ]
- atom:   28
  displacement:
    [   0.0000000000000000,  0.0000000000000000, -0.0100000000000000 ]
- atom:   37
  displacement:
    [   0.0099999999997760,  0.0000000669348690,  0.0000000000000000 ]
- atom:   37
  displacement:
    [  -0.0099999999997760, -0.0000000669348690,  0.0000000000000000 ]
- atom:   37
  displacement:
    [  -0.0049999624212634,  0.0086602757338294,  0.0000000000000000 ]
- atom:   37
  displacement:
    [   0.0049999624212634, -0.0086602757338294,  0.0000000000000000 ]
- atom:   37
  displacement:
    [   0.0000000000000000,  0.0000000000000000,  0.0100000000000000 ]
- atom:   37
  displacement:
    [   0.0000000000000000,  0.0000000000000000, -0.0100000000000000 ]
- atom:   46
  displacement:
    [   0.0099999999997760,  0.0000000669348690,  0.0000000000000000 ]
- atom:   46
  displacement:
    [  -0.0099999999997760, -0.0000000669348690,  0.0000000000000000 ]
- atom:   46
  displacement:
    [  -0.0049999624212634,  0.0086602757338294,  0.0000000000000000 ]
- atom:   46
  displacement:
    [   0.0049999624212634, -0.0086602757338294,  0.0000000000000000 ]
- atom:   46
  displacement:
    [   0.0000000000000000,  0.0000000000000000,  0.0100000000000000 ]
- atom:   46
  displacement:
    [   0.0000000000000000,  0.0000000000000000, -0.0100000000000000 ]
- atom:   55
  displacement:
    [   0.0099999999997760,  0.0000000669348690,  0.0000000000000000 ]
- atom:   55
  displacement:
    [  -0.0099999999997760, -0.0000000669348690,  0.0000000000000000 ]
- atom:   55
  displacement:
    [  -0.0049999624212634,  0.0086602757338294,  0.0000000000000000 ]
- atom:   55
  displacement:
    [   0.0049999624212634, -0.0086602757338294,  0.0000000000000000 ]
- atom:   55
  displacement:
    [   0.0000000000000000,  0.0000000000000000,  0.0100000000000000 ]
- atom:   55
  displacement:
    [   0.0000000000000000,  0.0000000000000000, -0.0100000000000000 ]
- atom:   64
  displacement:
    [   0.0099999999997760,  0.0000000669348690,  0.0000000000000000 ]
- atom:   64
  displacement:
    [  -0.0099999999997760, -0.0000000669348690,  0.0000000000000000 ]
- atom:   64
  displacement:
    [  -0.0049999624212634,  0.0086602757338294,  0.0000000000000000 ]
- atom:   64
  displacement:
    [   0.0049999624212634, -0.0086602757338294,  0.0000000000000000 ]
- atom:   64
  displacement:
    [   0.0000000000000000,  0.0000000000000000,  0.0100000000000000 ]
- atom:   64
  displacement:
    [   0.0000000000000000,  0.0000000000000000, -0.0100000000000000 ]
- atom:   73
  displacement:
    [   0.0099999999997760,  0.0000000669348690,  0.0000000000000000 ]
- atom:   73
  displacement:
    [  -0.0099999999997760, -0.0000000669348690,  0.0000000000000000 ]
- atom:   73
  displacement:
    [  -0.0049999624212634,  0.0086602757338294,  0.0000000000000000 ]
- atom:   73
  displacement:
    [   0.0049999624212634, -0.0086602757338294,  0.0000000000000000 ]
- atom:   73
  displacement:
    [   0.0000000000000000,  0.0000000000000000,  0.0100000000000000 ]
- atom:   73
  displacement:
    [   0.0000000000000000,  0.0000000000000000, -0.0100000000000000 ]
- atom:   82
  displacement:
    [   0.0099999999997760,  0.0000000669348690,  0.0000000000000000 ]
- atom:   82
  displacement:
    [  -0.0099999999997760, -0.0000000669348690,  0.0000000000000000 ]
- atom:   82
  displacement:
    [  -0.0049999624212634,  0.0086602757338294,  0.0000000000000000 ]
- atom:   82
  displacement:
    [   0.0049999624212634, -0.0086602757338294,  0.0000000000000000 ]
- atom:   82
  displacement:
    [   0.0000000000000000,  0.0000000000000000,  0.0100000000000000 ]
- atom:   82
  displacement:
    [   0.0000000000000000,  0.0000000000000000, -0.0100000000000000 ]
